# vtk DataFile Version 3.0
d-2__ created by libgimli-v1.4.0-2-g533eb525
ASCII
DATASET UNSTRUCTURED_GRID
POINTS 627 double
0.59602454149345	-0.55890814287534	0
1.0608819016156	-0.69231184474203	0
1	-0.2	0
1.5538138530412	-1.2593818125152	0
2.3808444399323	-0.96226589507863	0
2	-0.4	0
27.875196975806	-0.26041814910996	0
27.814419337407	-0.64642690483979	0
28.199150933087	-0.36912165509725	0
0.16971469503797	-0.39121754785772	0
0.5	-0.1	0
48	1.2	0
47.5	1.15	0
47.777114870539	0.78133833982488	0
2.5	-0.4	0
3.0273213995452	-0.76942737902147	0
3	-0.4	0
7.5	-0.4	0
7.6364402180375	-0.59411264956681	0
7.75	-0.4	0
3.3812157411133	-0.59539976181549	0
3.5	-0.4	0
3.25	-0.4	0
7.5708308146565	-0.85951222953059	0
7.9377651355219	-0.7015993336413	0
3.6122391877338	-0.58072427502293	0
33.202892396591	-0.5953509274781	0
33	0	0
32.560315583292	-0.49737044175062	0
0	0	0
-0.16928288127992	-0.27137808660493	0
3.9147318475892	-0.67983308489439	0
4	-0.4	0
3.75	-0.4	0
27.187838060729	-0.45733056754243	0
27.122891658963	-0.71526180345575	0
27.415206839024	-0.55276830742071	0
4.5	-0.4	0
4.2374041084785	-1.0529915782402	0
23.10665474191	-0.26473662514052	0
23.25	0	0
23	0	0
38.8405829624	0.084451656408117	0
39	0.5	0
38.5	0.45	0
5.2591984577563	-1.1578544721481	0
5.5	-0.4	0
5	-0.4	0
6.5805018764446	-0.81713513745441	0
7	-0.4	0
6.5	-0.4	0
6	-0.4	0
5.9504684721398	-1.0072912199447	0
42.894303234233	0.43683044180711	0
43	0.8	0
42.5	0.75	0
3.780471667081	-1.1085553727577	0
3.5115586187897	-0.83321839899695	0
35.539558646274	-0.25462858561268	0
35.153371753454	-0.1986635410338	0
35.380507666173	-0.64146921251739	0
7.171095641117	-0.8015432022008	0
7.25	-0.4	0
15.261265724613	-1.0045549203206	0
15.223052085983	-1.9822300249027	0
15.908935580823	-1.0873564335477	0
15.139495494558	-0.63932879982578	0
15.352350260223	-0.6297600496251	0
7.4252566073657	-0.61068285564578	0
23.130087373182	-0.87580075110983	0
23.486099013928	-1.3086127951837	0
23.580935392852	-0.72644682127645	0
8	-0.4	0
14.5	-0.4	0
14	-0.4	0
14.345140087588	-0.85072613989515	0
35.619175226501	-0.0019291369495359	0
35.891159214051	-0.14777042660777	0
8.5	-0.4	0
8.2826737962973	-1.0981294005287	0
35.75	0.2	0
9.3246800537518	-1.148328172721	0
9.5	-0.4	0
9	-0.4	0
7.832195572646	-1.1615880380191	0
30.826257138617	-0.35696314224924	0
31.255609091428	-0.59031706803229	0
31.136701877878	-0.23385627131092	0
26.5	0	0
26.324414058858	-0.41890082095303	0
26.766502441303	-0.32416677855617	0
46.112506749274	-0.60663534877479	0
46.376537705098	0.34858185391642	0
45.610378614159	0.26311610571862	0
11	-0.4	0
10.5	-0.4	0
10.608743626553	-0.79952533591312	0
38	0.4	0
38.329659048707	-0.075575067811823	0
11.429875165842	-0.59607395208197	0
11.5	-0.4	0
11.25	-0.4	0
11.186726568883	-0.77709364572698	0
43.945799866022	0.63094153950689	0
44.050677776329	0.18235652249273	0
44.264214437721	0.62934327610792	0
35.087222178438	-1.1836913994164	0
35.787965047302	-1.0596353812572	0
11.937090449026	-0.67325940259616	0
12	-0.4	0
11.75	-0.4	0
24.013470436226	-0.40008280695543	0
24.697646002258	-0.78562522324927	0
24.5	0	0
12.270904419467	-1.0223429006622	0
11.832169268571	-1.077737543497	0
12.5	-0.4	0
31.885949384678	-0.25359510076467	0
31.899300252102	-0.69086961285801	0
32.169548364003	-0.28787895996158	0
11.638455314889	-0.57860788859813	0
39.15354287578	0.25127151148751	0
39.304526840312	-0.13538927561132	0
39.371816686809	0.27866932758556	0
10	-0.4	0
9.9981402869377	-0.98990364988492	0
40.232288419921	0.23990197680325	0
40.044638778788	-0.33525364577994	0
40.684392955434	0.076404146478024	0
43.361817343711	0.24713098218452	0
43.178140514934	0.58494645422585	0
13.303042162058	-1.9321686348684	0
14.124822803471	-1.4739241259628	0
13.316050310388	-1.0556643744032	0
16.639191265519	-1.7061008497439	0
15.61068960129	-0.69811438718765	0
15.5	-0.4	0
15.25	-0.4	0
14.833812883356	-0.75442246413523	0
8.7226995705542	-1.5432795592206	0
8.76452113103	-0.91860620918919	0
15.75	-0.4	0
15.889074891105	-0.65529685489903	0
4.6147746331948	-1.5243636572383	0
4.723006042076	-0.90540005887669	0
15	-0.4	0
14.757438838034	-1.2160690906152	0
27.267795126896	-1.4934455951442	0
27.85880401897	-1.243283738947	0
27.417674736775	-0.9525009576682	0
-0.099581570158929	-0.5916048997199	0
-0.41934832217733	-0.52007046924587	0
-0.26927899916222	-0.95589617972593	0
31	0	0
30.5	0	0
0.19009807810242	-0.83104971679857	0
-0.41584234870287	-0.18285130542185	0
-0.74014285735921	-0.27507773398372	0
43.665491387939	0.56693048121852	0
43.390153282242	0.61489952067902	0
11.578496990264	-0.8204229631197	0
11.452107357407	-1.2129210043882	0
-0.25	0.05	0
-0.5	0.1	0
18.826953579128	-0.69909657243393	0
18.814383625534	-1.2772373402634	0
19.131477012444	-0.88430993065487	0
16.173235356389	-0.68508924090897	0
27.085813697114	-0.25694908032364	0
26.975444546296	-0.50359759556197	0
23.991121943184	-0.9784353116556	0
16.5	-0.4	0
16.564809579149	-0.87641651407768	0
25.798248765882	-0.4737122180813	0
26	0	0
25.5	0	0
19.40442668834	-0.41445397353914	0
19.25	-0.225	0
19.174128063883	-0.53950027676506	0
20.109398019733	-0.42759791510122	0
19.75	-0.075	0
19.667451158811	-0.44366855853988	0
19.432475407732	-0.72245653725691	0
19.808814640546	-0.87399520937349	0
20	0	0
20.5	0	0
17	-0.4	0
17.159466580513	-0.96793072534281	0
27.5	0	0
27.615108922137	-0.28628536935858	0
27.75	0	0
47.678453634057	0.19225342830109	0
48.24856818204	0.57941720950784	0
19.5	-0.15	0
42	0.7	0
42.429183477356	0.26144029683868	0
35.412988265183	-0.010258600534869	0
19	-0.3	0
31.350297784609	-0.22305910382745	0
27.037060756181	-1.0594301491955	0
26.719962191047	-0.76411134599078	0
26.65985179346	-1.3703683359135	0
19.957486496499	-1.495491447154	0
19.302194465219	-1.8818835569532	0
20.192684967925	-2.564408841513	0
30	0	0
30.320447315291	-0.48757652073086	0
39.934999257028	0.25643693188556	0
23.579087729413	-0.30450083619166	0
23.288713441687	-0.48859574267036	0
35.5	0.2	0
16	-0.4	0
23.5	0	0
23.344673452144	-0.21148606683095	0
20.276721422855	-0.97965760940943	0
3.3474395349294	-1.2739116854082	0
18.5	-0.35	0
22.993731228781	-0.54921621587347	0
44	0.9	0
39.650676011833	0.19922639227443	0
22.307920600302	-0.4451565464358	0
22.5	0	0
22	0	0
27.341426787298	-0.2585824754109	0
40	0.6	0
30.091942619787	-1.2135284032037	0
31.223306645835	-1.5054683033294	0
30.743579116509	-0.8307560237255	0
27.25	0	0
27	0	0
7.4258496923308	-1.2887691056391	0
0.65299823193399	-1.1487959874561	0
32	0	0
43.5	0.85	0
43.25	0.825	0
31.607606922628	-0.29233586588645	0
31.5	0	0
31.25	0	0
39.25	0.525	0
31.75	0	0
1.5	-0.3	0
32.5	0	0
24	0	0
23.75	0	0
34.557838705461	-0.25703615367359	0
35	0.2	0
34.5	0.15	0
35.25	0.2	0
33.5	0.05	0
33.89467067294	-0.47805396413242	0
34	0.1	0
-1	0.2	0
-1.5	0.3	0
-1.2843018847327	-0.3960771695047	0
36.269859875664	-0.084046629910987	0
36	0.2	0
36.273896354455	-0.5732343987822	0
35.776253954207	-0.53312696397968	0
43.75	0.875	0
36.5	0.25	0
47.25	1.125	0
47	1.1	0
47.036713663049	0.62271467571541	0
39.5	0.55	0
39.75	0.575	0
34.923029429751	-0.64161894199171	0
41	0.6	0
40.5	0.6	0
48.573147357305	-0.47840790539386	0
47.663865519932	-0.69707964295385	0
46.5	1.05	0
46	1	0
22.128516855588	-1.0569779353686	0
21.775199909049	-0.49681137560232	0
44.5	0.95	0
44.824346262928	0.48244277202829	0
37.406187498554	-0.80674571609498	0
38.11873858735	-0.73269364600946	0
37.760216106629	-0.17326262513561	0
45.5	1	0
45	1	0
43.453750742606	-0.63280375302585	0
42.906461918129	-0.024969119759374	0
47.450032905464	0.77601739683663	0
46.985975675411	-0.24904804259996	0
41.298175507704	0.063323243567783	0
13.85689432197	-0.83847173861835	0
13.5	-0.4	0
13	-0.4	0
12.752940710427	-0.86762844021077	0
19.409150173672	-1.1864306006717	0
29.761563225382	-0.52291867356737	0
22.764219880903	-0.33942892032682	0
29.215326231293	-0.48191855097293	0
29.5	0	0
28	0	0
28.688649342834	-0.44684349917813	0
28.5	0	0
37.5	0.35	0
36.681805218743	-0.15229124172581	0
38.753162552777	-0.49010725514548	0
41.5	0.65	0
41.885227397923	0.1428824382389	0
6.9514554037956	-1.2386196931266	0
7.0906978082624	-1.8139102296668	0
11.003791895896	-1.1927651832999	0
11.202956649432	-1.7324230403942	0
11.932894801412	-1.6415041333303	0
32.584973181955	-1.4164787188154	0
25.506804671986	-1.0113097135178	0
26.165115187168	-0.9482261115778	0
28.32344825446	-0.85925904415908	0
28.899569329699	-0.96765631047511	0
13.115344390897	-2.951319241598	0
14.073403872138	-2.4180275668214	0
37	0.3	0
3.8815510826781	-1.7197129406951	0
7.9540974618343	-1.8585791843441	0
22.679816071891	-0.77759859879037	0
22.756035907614	-1.3986416937134	0
21.5	0	0
7.2239769799694	-2.8524738099322	0
25.984909892831	-1.6455766905132	0
26.795618479628	-2.2934473247542	0
-0.82097386468717	-0.85432683498929	0
3.0306648925385	-1.9347213971813	0
-0.55574600000431	-1.6057966697977	0
21.292162840866	-0.43307713597666	0
21.422087777317	-1.0446640929338	0
18.338080807942	-0.85609172207467	0
29	0	0
42.401110479421	-0.43993912059384	0
21.825882455462	-2.1692764410809	0
12.521968964813	-2.161799822243	0
12.68244876465	-1.448236545375	0
37.199493672204	-0.18390132773752	0
17.767426182787	-0.93230104455066	0
17.479853223278	-1.489645697177	0
18.11472433221	-1.4796890254686	0
29.444049891194	-0.95259901608375	0
29.252883730279	-1.5759702845591	0
2.832271188283	-1.3132529428712	0
0.3097721921811	-4.5118421226309	0
2.0319767114857	-2.7487572056021	0
0.42578788620597	-2.2141604646985	0
36.844785300549	-0.62602832440225	0
20.763440539089	-0.62387848145875	0
3.7095925328944	-2.9470660584911	0
9.3232841573149	-2.0194648474514	0
25.300075354876	-0.45499552801298	0
18	-0.4	0
11.591804977841	-2.7777036871626	0
37.852280070065	-1.7097344640432	0
5.1481245107242	-2.0881410688559	0
-1.9878388005878	-0.3632321598835	0
-1.1046658221076	-2.8960422577155	0
-1.6565782914511	-1.3866414513215	0
36.651353826184	-1.4277827647086	0
49.5	1.35	0
48.5	1.25	0
48.949745409659	0.51977468296569	0
33.448045820155	-2.2113506906973	0
32.081137828361	-3.1838024934998	0
34.454566905967	-3.3939763080757	0
47.022991457193	-1.3718436676264	0
[...]
CELL_DATA 1090
SCALARS Coverage double 1
LOOKUP_TABLE default
5.9527446117014 12.903288157764 0 0.815756821095 0.50249378105604 1.7249308370422 0 2.8202595773274 3.25 0.76794851109638 12.142236284376 7.0952315071527 1.5281149862939 3.3522058712636 0.43491995891424 4.1079492316217 0.25015448267335 4.9934772923336 0.50249378105604 4.6548278063115 3.5708628351577 2.7702993004929 3 2.2694276006288 22.13296631121 12.379409674205 13.94207722758 8.1362994607815 0.20844672188175 8.7097246205523 9.5943754420346 0 0.71180115508456 5.6769334437245 0.28072669180402 2.4549161900812 4.1439399569487 0.5 5.2577425254748 3.516270833977 7.9258841995642 9.714695912339 12.528081284551 2.2367907145699 0.50249378105604 2.6124016005561 2.75 9.7404117917081 9.555109202245 3.1491668812561 0 6.5205287256331 0 0.10936956974733 8.7678940533224 0 1.4621300173187 5.8842521996725 0.51914786989569 2.5566224353625 0.8112680232198 3.2118160461622 88.098467568098 0.27311192954526 0 0.19271423661702 4.0514027690912 0.25 2.8347216679604 0 11.568000590695 0.94253246173365 0.25 4.6903573845473 0 6.4531473653273 17.050599877423 4.3087999936405 5.4803060499505 0 6.6385322580503 11.551948051059 0 4.8241886101376 0.63136008747795 9.2304992442868 1.0198039027186 0.57644325603023 2.0044059266861 1.1565547996699 1.6593435023272 23.632320818756 3.3642875947757 6.5802690614404 0.43581704577508 7.6474552625859 0 1.340523290268 14.710308891473 0 0 6.5408958834446 5.29094025541 7.0090788942297 0 6.9310488882258 0.40336592500862 0.52201532544553 0.52201532544553 0.54756735632328 0 6.9743698010516 0 0 4.1397435541148 15.571792470582 0.28507093456822 2.1061700819895 3.3756002435299 3.351163069806 0.5 2.5168313816871 17.932554259056 0.57730453184382 1.5369421403144 1.381102913906 0.93173934337173 0.50249378105604 0 0 0.1891192291178 2.7168606511494 0 0.5 0.73865998780698 5.3571121327341 0 0 0.84811063955531 3.2997358748522 11.789784562439 1.6222008070897 0.44088674043969 0 16.121039282908 0 0.1875 0 17.614577623409 27.37256139805 0.4375 1.4815820737192 3.7918782102268 5.4173751894544 0.25124689052802 2.7694287476584 0 1.0902907760977 0 3.6677374751063 5.9590523613616 7 0.11619026581951 0.71934306108996 2.1736176755889 0.50990195135928 0 2.0985591519109 5.1997514130585 1.5 7.3769847055037 1.5 0 6.8037141391406 0.40674144173495 3.0398053391802 16.54601562994 2.6320709469028 0.16038793187668 5.5724374655599 1.0049875621121 0 1.0049875621121 13.095046616294 0 4.7741546210534 6.8942443340026 6.0487713220319 0 0.97801833590258 11.284528557279 7 9.5020248862672 1.4073126959063 32.078689308591 0.43558307236534 15.667379151006 0 4.1650908626626 3.2082273403459 2.1914700883714 16.19662048045 0.61124758873974 1.3913824090949 1.649315368553 9.8531256204498 5.7931887139142 4.5279233024213 9.555109202245 0.5 0.48075986890807 4.6473060814724 0.21746599276004 2.1061700819895 0.45100407541506 0 0 0 0.7457874766048 0.50249378105604 0.25124689052802 0 0.20183352190504 3.9565016038092 7.0868823716509 0 2.2905672884588 0 4.0221988341215 0 15.005713840439 0 0.49834180831788 0 7.8816363772043 9.9555659492149 0.85953319674066 0.50249378105604 11.669675608146 12.311097635873 19.508256808131 2.5474949254164 0 5.7754938373318 6.6777727932625 2.3662133030635 0 0 1.4756845011932 0.26980693491476 7.3061034722703 0 0 0 7.0851936233527 0 0 7.8938109865832 3.3756002435299 4.197483408283 11.415980886241 0.5 0 6.5 0 0 8.0901455260506 6.9698062258929 0.20913087104437 0.50249378105604 0.20877996355396 0 1.579850129405 1.0813700838222 6.0271307547927 1.8540542745982 3.5935295423812 2.0871935230646 0 3.7925912400245 0.41471814821341 1.710179657931 1.7676003514898 0.78973487249533 19.271629727377 5.1978784155967 0 0.46686440585249 2.8095071866356 7.0011834093325 84.703152544616 7.25 0 5.0678878887715 0 0 22.466020483519 20.851029811841 0.81839384125414 0 18.843921128139 2.2485774418275 8.6931703499374 0 0.19987013420793 0 2.1065545828792 2.6152715891475 0.50990195135928 25.728477779528 0.79460461053927 39.410418895341 1.2703884226655 5.5446343540791 8.8032983470776 5.2734179379837 0 9.1210844009358 0 0 0 0 1.3327268754631 0.93007139964527 8.2154050560545 9.1325294237463 0 0 2.3534282193524 0.47045352550219 2.983366625285 0.12588442435067 22.805499972065 1.4821244657983 3.283935213808 0 1.0615379396914 6.9724600683458 4.4388937476065 0 0 39.535688748723 14.38446839531 4.934152338089 2.5626858410933 0 3.9774414500029 6.8424288523577 5.6336096150637 3.5959858843358 4.3967883728291 3.5173745774467 0.4892754793006 0 5.6034411320015 1.7305788759281 1.0929170005262 91.32172709549 2.7828017462102 1.2306242425077 0 11.787770121666 0 12.8818861968 13.815516228688 0.50249378105604 32.019109657163 3.8951580451473 2.3155243843046 7.4483396703704 0 0.89188469349675 3.3606014322247 0 24.907279723446 18.721632822141 3.0475991429023 0 1.3898985031097 0 28.423191333307 0.62661747995526 196.83103206857 29.681870299017 12.539800681902 0 0 1.3973574184769 0 5.0513949781713 19.575212021406 6.7335905433972 1.7389445251184 10.004955575271 1.4202139154411 0.49574684313625 33.778497548679 0.56270474236418 8.2927301496615 13.223088065393 7.3527131389 12.59709257313 2.9943019577847 8.190519603703 22.048712416789 2.501664967862 20.610855494293 2.4780488392394 9.7445093090345 2.8658021292917 4.3219531505252 0.5 7.9267804414567 10.541535497118 0 1.9423816353502 0.29683746988745 61.751962900628 6.5 8.5827252062409 4.5168313816871 1.504143859757 0 3.5802109869512 0.50249378105604 2.7726809874646 0.81135896799991 3.8500071979738 11.302848799425 13.069956241174 0 0 4.5881459200326 7.1146460218138 0 0 2.4768888897822 2.2802860136316 0 0.44242993598719 0 0 0 29.692987973636 0.6831487879222 46.006510880272 4.3536900993624 2.2172991612601 0 2.3094562771144 7.1313515309245 1.6423321279623 0 5.0616051758442 0.65624497709268 0 2.3825151279286 0.172534827432 7.1707604254276 1.6918458103982 5.5121540515799 0 0.37255245003722 24.143744405971 21.577666074095 0.45269601072016 3.6293061193645 10.985425997976 0.88894535658001 5.2019484106861 1.775705166324 2.8800347554257 10.335885674996 13.032490483903 0.48427262176173 5.8925904012113 32.556163148921 2.8066086616791 16.05991185581 4.5 1.3329642951697 2.7960478900512 41.082371004941 40.162799957136 5.6084466486018 17.98953751666 6.9373380875009 6.1071063500181 7.22179499829 3.116307268441 1.7718190750195 0 9.5282808865019 0 0 5.2177988437339 29.369918403509 2.0863417523783 41.904820836264 21.892680748639 26.609326212411 8.5184566879352 3.9707072274141 0 2.0189116329353 0.97830703596633 9.2194605711781 0 0 0 27.139971708801 30.541211899709 6.8681020169699 6.7358550816088 8.009550856671 3.3345439220476 0 4.3255672503959 10.684991335887 0 4.5 2.528262665631 1.5549841465254 0.50941616854879 0.31417748724455 0.66035372535666 37.402730888326 0.68809419811475 1.9186491388925 2.4624657148722 24.963069896703 5.710816463751 5.9468022724908 107.88399729511 4.3722568695389 25.982239451531 33.923824714575 3.7309552568651 4.4016097154102 5.7585760289047 0 4.2584896548265 1.188952094054 2.8134669630123 3.7128583005387 0 7.6551800224055 6.8633507618123 0 7.85843985287 2.6932312814678 2.9163391118709 45.07783685099 0.88894535658001 1.8071318347214 4.9394833083291 4.5837825023384 13.570148569561 2.1823679140161 8.6345174797006 3.3467721047811 5.0565263997251 5.0863142224031 0 24.534547061876 18.459137105882 22.439145648152 25.384208668883 0 1.7305788759281 13.459683668623 17.06911043419 0 8.9652384326093 4.7287475895192 36.274819369514 37.896013480484 14.780397480798 70.311264904362 0 7.5384563006411 0.1759273172902 2.6652886299691 4.7045495335445 0 0 3.055073898509 6.1101477970181 0 7.7208036185802 6.9569906902816 16.957281168466 11.705162977848 66.599358023506 54.744290608303 65.877832655526 13.024736445505 79.769638921745 3.7425859953903 2.4164063102793 3.039012761848 19.059421429454 9.8992814438041 11.48749095743 35.408095775438 0 18.080938267989 30.822129565924 14.718061766946 31.884364081263 48.435400524158 27.618028361173 0 18.866154930563 38.457525934086 7.7251887508756 8.5342024815046 10.117853103745 17.67239068796 13.636484816713 62.103489285997 16.353360150868 3.8383003925015 1.9957613270449 6.8027502907003 32.924668301791 6.0866689440806 0 58.465909496021 6.1528735946293 4.9373258333509 6.360473554872 101.52802275175 3.8048128789763 4.4644995543497 3.442032192399 0 59.127158445744 20.313714857355 0.87934364436167 30.809637889032 43.840441653256 4.7929727700403 62.673058314969 20.373524055049 51.972507232649 39.421849690548 16.567028224136 1.3661001208426 12.052296151534 0.30117624941235 14.232851399179 11.415980886241 37.350750791964 8.9596319839692 4.4000619656413 4.4219137707307 11.203041055056 16.522881361742 3.7019190565045 68.999646386508 0 9.8143955462013 31.601417421229 56.56852787243 13.718192237652 0.38316326627737 37.78593109302 0 27.302335809414 16.09359980016 173.86559355096 30.907709934953 0 33.809927224794 6.7447727291215 0 0 7.7300942884254 21.932564396001 9.0745647424097 11.181554769404 49.881477783656 108.91230738484 1.135926646979 5.5140501037755 3.4595466298273 4.131479730694 0 17.784311675738 1.2239925839847 2.9190535233849 56.361929819717 0.88247788708458 1.2239925839847 12.747291348909 5.4452671273602 3.9213990509449 19.389789487625 10.335496381116 24.608040210257 34.628361636341 61.615304366716 13.075953600746 12.658951036167 3.4492651223529 128.45907011268 30.774146597013 20.419744929911 83.466466884261 0 0 8.9817415911916 0 0 36.56669817249 0 31.137696157026 0 10.135776479062 0 64.571381925322 26.772963963585 21.299766423164 0 0 0 105.59172034481 31.137696157026 14.99130511432 64.248528170304 46.476218852801 40.488876759122 38.733924272305 10.203512033288 0 15.511373996646 30.536586240179 13.878093755176 71.900617602741 6.0086525450887 43.780829161947 55.583535141215 40.698094747741 75.472431926992 49.005887713407 42.616331561863 136.83497838346 2.1679266342402 17.187636089363 21.705562507452 52.826241267144 216.52824352084 17.591077425951 21.030776520567 69.112307990999 0 65.457275846066 27.178445513712 86.737258889674 0 121.01149657533 3.2630263591225 18.033124586418 65.852267869677 0 91.561211370298 177.48257051828 0 0 21.502820495653 57.959951422225 5.1570502100716 24.970308640587 71.320066033045 41.168519456894 0 49.962568301388 0 51.4924119727 22.103018959421 20.360578398177 36.580958401576 49.484067021475 54.469655815208 45.9215554621 28.770406275377 101.65639091798 79.788584781138 58.496288264511 81.840526210909 18.304615132834 61.713216094325 58.210671187835 12.905497078266 49.927845583635 35.748832370866 48.27685332539 45.712247659073 27.810605554619 38.860011406103 109.29637148777 86.614645324289 325.89676690401 123.11209509104 0 0 0 56.927655516981 26.335695743854 0.71221022800877 96.85797144314 0 5.4841656260605 74.141327311449 0 77.470279786611 266.04843695402 0 1.3127183986037 6.0887940155882 0 130.54837293853 0 0 96.201628105095 72.192931050722 7.1064978437245 79.178490488255 32.459302810077 0 62.215551362402 0 14.608798147512 186.66460253178 0 266.33855326999 28.781671819231 24.858874551146 43.881191805514 20.905886863095 82.932126626599 55.090483851699 32.981014192428 92.207016373481 44.598049625002 43.038460060448 101.14568790023 0 0 0 0 0 135.86291994121 27.432308902268 34.635992779075 136.6990564539 0 42.757559005129 166.94080759566 0 0 2.3491090603399 0 0 6.3924969786546 0 0 0 0 0 64.558048228701 0 0 0 0 0 0 0 0 0 0 0 0 0 0 0 0 0 0 0 0 32.052567425572 3.105792134102 0 0 0 136.61598697631 218.39813848679 41.650792331545 34.485096480838 3.7843972127744 33.079205863318 11.737348974957 0 19.496873648647 0 97.360422508749 104.69649040811 96.674605609499 0 65.187923113532 0 0 0 0 0 0 0 0 0 0 0 86.858982867629 0 0 0 0 0 36.489880890712 0 103.48942738221 0 0 51.728490698728 0 0 0 86.020819593058 0 36.342784035812 0 3.0818154776429 0 46.722507727883 14.429989253509 110.72975484413 29.315485280983 79.235075965167 0 131.16078636363 0 69.028111643939 0 0 0 0 0 0 0 16.75496241407 23.265488659203 22.22683198062 69.028111643939 16.163784408397 14.429989253509 0 0 0 95.409496463823 111.0154308956 0 0 15.83003468372 0 0 0 0 0 0 0 0 0 0 0 0 0 0 0 0 0 0 0 0 0 0 0 0 0 0 0 0 0 0 0 0 0 0 0 0 0 0 0 0 0 0 0 0 0 0 0 0 0 0 0 0 0 0 0 0 0 0 0 43.028027669462 0 0 25.620431962353 114.40813152869 71.981423734666 197.3375668789 0 35.579932264641 0 0 0 0 8.4959834737371 183.47882884646 0 0 27.286140242075 30.001236770158 0 0 0 0 0 0 0 0 0 35.077777380818 0 0 0 0 0 0 0 0 0 0 0 0 0 0 0 0 0 0 0 0 95.664365746164 83.266530796258 7.5163614304782 28.971942608741 0 0 0 0 
SCALARS Marker double 1
LOOKUP_TABLE default
0 1 2 3 4 5 6 7 8 9 10 11 12 13 14 15 16 17 18 19 20 21 22 23 24 25 26 27 28 29 30 31 32 33 34 35 36 37 38 39 40 41 42 43 44 45 46 47 48 49 50 51 52 53 54 55 56 57 58 59 60 61 62 63 64 65 66 67 68 69 70 71 72 73 74 75 76 77 78 79 80 81 82 83 84 85 86 87 88 89 90 91 92 93 94 95 96 97 98 99 100 101 102 103 104 105 106 107 108 109 110 111 112 113 114 115 116 117 118 119 120 121 122 123 124 125 126 127 128 129 130 131 132 133 134 135 136 137 138 139 140 141 142 143 144 145 146 147 148 149 150 151 152 153 154 155 156 157 158 159 160 161 162 163 164 165 166 167 168 169 170 171 172 173 174 175 176 177 178 179 180 181 182 183 184 185 186 187 188 189 190 191 192 193 194 195 196 197 198 199 200 201 202 203 204 205 206 207 208 209 210 211 212 213 214 215 216 217 218 219 220 221 222 223 224 225 226 227 228 229 230 231 232 233 234 235 236 237 238 239 240 241 242 243 244 245 246 247 248 249 250 251 252 253 254 255 256 257 258 259 260 261 262 263 264 265 266 267 268 269 270 271 272 273 274 275 276 277 278 279 280 281 282 283 284 285 286 287 288 289 290 291 292 293 294 295 296 297 298 299 300 301 302 303 304 305 306 307 308 309 310 311 312 313 314 315 316 317 318 319 320 321 322 323 324 325 326 327 328 329 330 331 332 333 334 335 336 337 338 339 340 341 342 343 344 345 346 347 348 349 350 351 352 353 354 355 356 357 358 359 360 361 362 363 364 365 366 367 368 369 370 371 372 373 374 375 376 377 378 379 380 381 382 383 384 385 386 387 388 389 390 391 392 393 394 395 396 397 398 399 400 401 402 403 404 405 406 407 408 409 410 411 412 413 414 415 416 417 418 419 420 421 422 423 424 425 426 427 428 429 430 431 432 433 434 435 436 437 438 439 440 441 442 443 444 445 446 447 448 449 450 451 452 453 454 455 456 457 458 459 460 461 462 463 464 465 466 467 468 469 470 471 472 473 474 475 476 477 478 479 480 481 482 483 484 485 486 487 488 489 490 491 492 493 494 495 496 497 498 499 500 501 502 503 504 505 506 507 508 509 510 511 512 513 514 515 516 517 518 519 520 521 522 523 524 525 526 527 528 529 530 531 532 533 534 535 536 537 538 539 540 541 542 543 544 545 546 547 548 549 550 551 552 553 554 555 556 557 558 559 560 561 562 563 564 565 566 567 568 569 570 571 572 573 574 575 576 577 578 579 580 581 582 583 584 585 586 587 588 589 590 591 592 593 594 595 596 597 598 599 600 601 602 603 604 605 606 607 608 609 610 611 612 613 614 615 616 617 618 619 620 621 622 623 624 625 626 627 628 629 630 631 632 633 634 635 636 637 638 639 640 641 642 643 644 645 646 647 648 649 650 651 652 653 654 655 656 657 658 659 660 661 662 663 664 665 666 667 668 669 670 671 672 673 674 675 676 677 678 679 680 681 682 683 684 685 686 687 688 689 690 691 692 693 694 695 696 697 698 699 700 701 702 703 704 705 706 707 708 709 710 711 712 713 714 715 716 717 718 719 720 721 722 723 724 725 726 727 728 729 730 731 732 733 734 735 736 737 738 739 740 741 742 743 744 745 746 747 748 749 750 751 752 753 754 755 756 757 758 759 760 761 762 763 764 765 766 767 768 769 770 771 772 773 774 775 776 777 778 779 780 781 782 783 784 785 786 787 788 789 790 791 792 793 794 795 796 797 798 799 800 801 802 803 804 805 806 807 808 809 810 811 812 813 814 815 816 817 818 819 820 821 822 823 824 825 826 827 828 829 830 831 832 833 834 835 836 837 838 839 840 841 842 843 844 845 846 847 848 849 850 851 852 853 854 855 856 857 858 859 860 861 862 863 864 865 866 867 868 869 870 871 872 873 874 875 876 877 878 879 880 881 882 883 884 885 886 887 888 889 890 891 892 893 894 895 896 897 898 899 900 901 902 903 904 905 906 907 908 909 910 911 912 913 914 915 916 917 918 919 920 921 922 923 924 925 926 927 928 929 930 931 932 933 934 935 936 937 938 939 940 941 942 943 944 945 946 947 948 949 950 951 952 953 954 955 956 957 958 959 960 961 962 963 964 965 966 967 968 969 970 971 972 973 974 975 976 977 978 979 980 981 982 983 984 985 986 987 988 989 990 991 992 993 994 995 996 997 998 999 1000 1001 1002 1003 1004 1005 1006 1007 1008 1009 1010 1011 1012 1013 1014 1015 1016 1017 1018 1019 1020 1021 1022 1023 1024 1025 1026 1027 1028 1029 1030 1031 1032 1033 1034 1035 1036 1037 1038 1039 1040 1041 1042 1043 1044 1045 1046 1047 1048 1049 1050 1051 1052 1053 1054 1055 1056 1057 1058 1059 1060 1061 1062 1063 1064 1065 1066 1067 1068 1069 1070 1071 1072 1073 1074 1075 1076 1077 1078 1079 1080 1081 1082 1083 1084 1085 1086 1087 1088 1089 
SCALARS S_Coverage double 1
LOOKUP_TABLE default
1 1 1 1 1 1 1 1 1 1 1 1 1 1 1 1 1 1 1 1 1 1 1 1 1 1 1 1 1 1 1 1 1 1 1 1 1 1 1 1 1 1 1 1 1 1 1 1 1 1 1 1 1 1 1 1 1 1 1 1 1 1 1 1 1 1 1 1 1 1 1 1 1 1 1 1 1 1 1 1 1 1 1 1 1 1 1 1 1 1 1 1 1 1 1 1 1 1 1 1 1 1 1 1 0 1 1 1 1 1 1 1 1 1 1 1 1 1 1 1 1 1 1 1 1 1 1 1 1 1 1 1 1 1 1 1 1 1 1 1 1 1 1 1 1 1 1 1 1 1 1 1 1 1 1 1 1 1 1 1 1 1 1 1 1 1 1 1 1 1 1 1 1 1 1 1 1 1 1 1 1 1 1 1 1 1 1 1 0 1 1 1 1 1 1 1 1 1 1 1 1 1 1 1 1 1 1 1 1 1 1 1 1 1 1 1 1 1 1 1 1 1 1 1 1 1 1 1 1 1 1 1 1 1 1 1 1 1 1 1 1 1 1 1 1 1 1 1 1 1 1 1 1 1 1 1 1 1 1 1 1 1 1 1 1 1 1 1 1 1 1 1 1 1 1 1 1 1 0 1 1 1 1 1 1 1 1 1 1 1 1 1 1 1 0 1 1 1 1 1 1 1 1 1 1 1 1 1 1 1 1 1 1 1 1 1 1 1 0 1 1 0 1 1 1 1 1 1 1 1 1 1 1 1 1 1 1 1 1 1 1 1 1 1 1 1 1 1 1 1 1 1 1 1 1 1 1 1 1 1 1 1 1 1 1 1 1 1 1 1 1 1 1 0 1 1 1 1 1 1 1 1 1 1 1 1 1 1 1 1 1 1 1 1 1 1 1 1 1 1 1 1 1 1 1 1 1 1 1 1 1 1 1 1 1 1 1 1 1 1 1 1 1 1 1 1 1 1 1 1 1 1 1 1 1 1 1 1 1 1 1 1 1 1 1 1 1 1 1 1 1 1 1 1 1 1 1 1 1 1 1 1 1 1 1 1 1 1 1 1 1 1 1 1 1 1 1 1 1 1 1 1 1 1 1 1 1 1 1 1 1 1 1 1 1 1 1 1 1 1 1 1 1 0 1 1 1 1 1 1 1 1 1 1 1 1 1 1 1 1 1 1 1 1 1 1 1 1 1 1 1 1 1 1 1 1 1 1 1 1 0 1 1 1 1 1 1 1 1 1 1 1 1 1 1 1 1 1 1 1 1 1 1 1 1 1 1 1 1 1 1 1 1 1 1 1 1 1 1 0 1 1 1 1 1 1 1 1 1 1 1 1 1 1 1 1 1 1 1 1 1 1 1 1 1 1 1 1 1 1 1 1 1 1 1 1 1 1 1 1 1 1 1 1 1 1 1 1 1 1 1 1 1 1 1 1 1 1 1 1 1 1 1 1 1 1 1 1 1 1 1 1 1 1 1 1 1 1 1 1 1 1 1 1 1 1 1 1 0 1 1 1 1 1 1 1 1 1 1 1 1 1 1 1 1 1 1 1 1 1 1 1 1 1 1 1 1 1 1 1 1 1 1 1 1 1 1 1 1 1 1 0 1 0 1 1 0 1 1 1 0 1 1 1 1 1 1 1 1 1 1 1 1 1 1 1 1 1 1 1 1 1 1 1 1 1 1 1 1 1 1 1 1 1 1 1 1 1 1 1 1 1 1 1 1 1 1 1 0 0 1 1 1 1 1 1 1 1 1 1 1 1 1 1 1 1 1 1 1 1 1 1 1 1 1 1 1 1 1 1 1 1 1 1 1 0 0 0 1 1 1 1 0 1 1 1 1 1 0 1 1 1 1 1 1 1 1 1 1 1 1 1 1 1 1 0 1 1 1 1 1 1 1 1 1 1 1 1 0 0 0 0 0 1 1 1 1 0 1 1 0 0 1 0 0 1 0 0 1 0 1 1 0 1 0 0 0 0 0 0 0 0 0 0 0 0 0 0 0 1 0 1 1 1 1 0 1 1 1 1 1 1 1 1 1 1 0 1 1 1 0 1 0 0 0 1 0 0 0 1 0 0 1 1 0 0 0 0 0 1 0 1 0 0 1 0 0 1 1 1 1 0 1 0 1 1 1 1 1 0 1 1 1 0 0 1 0 0 0 0 1 1 1 1 1 1 1 0 1 1 1 0 0 1 0 0 0 0 0 0 0 0 0 0 0 0 0 0 0 0 0 0 0 0 0 0 0 0 0 0 0 0 0 0 0 0 0 0 0 0 0 0 0 0 0 1 0 0 0 0 0 0 0 0 0 0 0 0 0 0 1 1 1 1 0 1 1 1 1 1 0 1 0 0 0 0 1 1 1 0 1 1 0 0 1 0 0 0 0 0 0 1 0 0 0 0 0 1 0 0 0 0 0 0 0 0 0 0 0 0 0 0 1 1 1 1 0 0 0 0 
SCALARS Velocity double 1
LOOKUP_TABLE default